+ 1.0205 7 8 cbr 1280 ------- 0 0.0 9.0 0 0
- 1.0205 7 8 cbr 1280 ------- 0 0.0 9.0 0 0
+ 1.0605 7 8 cbr 1280 ------- 0 0.0 9.0 1 1
+ 1.1005 7 8 cbr 1280 ------- 0 0.0 9.0 2 2
- 1.1229 7 8 cbr 1280 ------- 0 0.0 9.0 1 1
r 1.12291 7 8 cbr 1280 ------- 0 0.0 9.0 0 0
+ 1.126243 7 8 exp 320 ------- 4 4.0 13.0 0 4
+ 1.1405 7 8 cbr 1280 ------- 0 0.0 9.0 3 3
+ 1.166243 7 8 exp 320 ------- 4 4.0 13.0 1 6
+ 1.1805 7 8 cbr 1280 ------- 0 0.0 9.0 4 5
+ 1.18306 7 8 exp 320 ------- 5 5.0 14.0 0 7
+ 1.186442 7 8 exp 320 ------- 5 5.0 14.0 1 8
+ 1.196442 7 8 exp 320 ------- 5 5.0 14.0 2 9
+ 1.206243 7 8 exp 320 ------- 4 4.0 13.0 2 11
+ 1.208803 7 8 exp 320 ------- 5 5.0 14.0 3 12
+ 1.2205 7 8 cbr 1280 ------- 0 0.0 9.0 5 10
+ 1.22306 7 8 exp 320 ------- 5 5.0 14.0 4 13
- 1.2253 7 8 cbr 1280 ------- 0 0.0 9.0 2 2
r 1.22531 7 8 cbr 1280 ------- 0 0.0 9.0 1 1
+ 1.226442 7 8 exp 320 ------- 5 5.0 14.0 5 14
+ 1.24236 7 8 pareto 320 ------- 1 1.0 10.0 0 15
+ 1.246243 7 8 exp 320 ------- 4 4.0 13.0 3 17
+ 1.2605 7 8 cbr 1280 ------- 0 0.0 9.0 6 16
+ 1.28236 7 8 pareto 320 ------- 1 1.0 10.0 1 18
+ 1.286243 7 8 exp 320 ------- 4 4.0 13.0 4 20
+ 1.3005 7 8 cbr 1280 ------- 0 0.0 9.0 7 19
+ 1.30306 7 8 exp 320 ------- 5 5.0 14.0 6 21
+ 1.310789 7 8 exp 320 ------- 5 5.0 14.0 7 22
+ 1.313349 7 8 pareto 320 ------- 2 2.0 11.0 0 23
+ 1.320789 7 8 exp 320 ------- 5 5.0 14.0 8 24
+ 1.323349 7 8 pareto 320 ------- 1 1.0 10.0 2 25
+ 1.325909 7 8 pareto 320 ------- 2 2.0 11.0 1 26
- 1.3277 7 8 exp 320 ------- 4 4.0 13.0 0 4
r 1.32771 7 8 cbr 1280 ------- 0 0.0 9.0 2 2
+ 1.328469 7 8 exp 320 ------- 4 4.0 13.0 5 28
+ 1.331029 7 8 exp 320 ------- 5 5.0 14.0 9 29
+ 1.341269 7 8 cbr 1280 ------- 0 0.0 9.0 8 27
+ 1.343829 7 8 pareto 320 ------- 2 2.0 11.0 2 30
+ 1.346389 7 8 exp 320 ------- 5 5.0 14.0 10 31
+ 1.348949 7 8 pareto 320 ------- 2 2.0 11.0 3 32
+ 1.352937 7 8 pareto 320 ------- 2 2.0 11.0 4 33
- 1.3533 7 8 cbr 1280 ------- 0 0.0 9.0 3 3
r 1.35331 7 8 exp 320 ------- 4 4.0 13.0 0 4
+ 1.36236 7 8 pareto 320 ------- 1 1.0 10.0 3 34
+ 1.36492 7 8 pareto 320 ------- 2 2.0 11.0 5 35
+ 1.36748 7 8 exp 320 ------- 4 4.0 13.0 6 37
+ 1.371164 7 8 pareto 320 ------- 3 3.0 12.0 0 38
+ 1.381404 7 8 cbr 1280 ------- 0 0.0 9.0 9 36
+ 1.383964 7 8 pareto 320 ------- 2 2.0 11.0 6 39
+ 1.386524 7 8 pareto 320 ------- 2 2.0 11.0 7 40
+ 1.392937 7 8 pareto 320 ------- 2 2.0 11.0 8 41
+ 1.40236 7 8 pareto 320 ------- 1 1.0 10.0 4 42
+ 1.40492 7 8 pareto 320 ------- 2 2.0 11.0 9 43
+ 1.40748 7 8 exp 320 ------- 4 4.0 13.0 7 45
+ 1.4205 7 8 cbr 1280 ------- 0 0.0 9.0 10 44
+ 1.42306 7 8 pareto 320 ------- 2 2.0 11.0 10 46
+ 1.42562 7 8 pareto 320 ------- 2 2.0 11.0 11 47
+ 1.432937 7 8 pareto 320 ------- 2 2.0 11.0 12 48
+ 1.44236 7 8 pareto 320 ------- 1 1.0 10.0 5 49
+ 1.44492 7 8 pareto 320 ------- 2 2.0 11.0 13 50
+ 1.44748 7 8 exp 320 ------- 4 4.0 13.0 8 52
- 1.4557 7 8 exp 320 ------- 4 4.0 13.0 1 6
r 1.45571 7 8 cbr 1280 ------- 0 0.0 9.0 3 3
+ 1.4605 7 8 cbr 1280 ------- 0 0.0 9.0 11 51
+ 1.46306 7 8 pareto 320 ------- 2 2.0 11.0 14 53
+ 1.46562 7 8 pareto 320 ------- 2 2.0 11.0 15 54
+ 1.472937 7 8 pareto 320 ------- 2 2.0 11.0 16 55
- 1.4813 7 8 cbr 1280 ------- 0 0.0 9.0 4 5
r 1.48131 7 8 exp 320 ------- 4 4.0 13.0 1 6
+ 1.48236 7 8 pareto 320 ------- 1 1.0 10.0 6 56
+ 1.486243 7 8 exp 320 ------- 4 4.0 13.0 9 58
+ 1.5005 7 8 cbr 1280 ------- 0 0.0 9.0 12 57
+ 1.52236 7 8 pareto 320 ------- 1 1.0 10.0 7 59
+ 1.526243 7 8 exp 320 ------- 4 4.0 13.0 10 61
+ 1.5405 7 8 cbr 1280 ------- 0 0.0 9.0 13 60
+ 1.554385 7 8 pareto 320 ------- 2 2.0 11.0 17 62
+ 1.56236 7 8 pareto 320 ------- 1 1.0 10.0 8 63
+ 1.566243 7 8 exp 320 ------- 4 4.0 13.0 11 65
+ 1.5805 7 8 cbr 1280 ------- 0 0.0 9.0 14 64
- 1.5837 7 8 exp 320 ------- 5 5.0 14.0 0 7
r 1.58371 7 8 cbr 1280 ------- 0 0.0 9.0 4 5
+ 1.60236 7 8 pareto 320 ------- 1 1.0 10.0 9 66
- 1.6093 7 8 exp 320 ------- 5 5.0 14.0 1 8
r 1.60931 7 8 exp 320 ------- 5 5.0 14.0 0 7
+ 1.6205 7 8 cbr 1280 ------- 0 0.0 9.0 15 67
- 1.6349 7 8 exp 320 ------- 5 5.0 14.0 2 9
r 1.63491 7 8 exp 320 ------- 5 5.0 14.0 1 8
+ 1.64236 7 8 pareto 320 ------- 1 1.0 10.0 10 68
- 1.6605 7 8 exp 320 ------- 4 4.0 13.0 2 11
+ 1.6605 7 8 cbr 1280 ------- 0 0.0 9.0 16 69
r 1.66051 7 8 exp 320 ------- 5 5.0 14.0 2 9
+ 1.68236 7 8 pareto 320 ------- 1 1.0 10.0 11 70
- 1.6861 7 8 exp 320 ------- 5 5.0 14.0 3 12
r 1.68611 7 8 exp 320 ------- 4 4.0 13.0 2 11
+ 1.7005 7 8 cbr 1280 ------- 0 0.0 9.0 17 71
- 1.7117 7 8 cbr 1280 ------- 0 0.0 9.0 5 10
r 1.71171 7 8 exp 320 ------- 5 5.0 14.0 3 12
+ 1.72236 7 8 pareto 320 ------- 1 1.0 10.0 12 72
+ 1.7405 7 8 cbr 1280 ------- 0 0.0 9.0 18 73
+ 1.76236 7 8 pareto 320 ------- 1 1.0 10.0 13 74
+ 1.7805 7 8 cbr 1280 ------- 0 0.0 9.0 19 75
+ 1.80236 7 8 pareto 320 ------- 1 1.0 10.0 14 76
- 1.8141 7 8 exp 320 ------- 5 5.0 14.0 4 13
r 1.81411 7 8 cbr 1280 ------- 0 0.0 9.0 5 10
+ 1.8205 7 8 cbr 1280 ------- 0 0.0 9.0 20 77
- 1.8397 7 8 exp 320 ------- 5 5.0 14.0 5 14
r 1.83971 7 8 exp 320 ------- 5 5.0 14.0 4 13
+ 1.84236 7 8 pareto 320 ------- 1 1.0 10.0 15 78
+ 1.84492 7 8 pareto 320 ------- 2 2.0 11.0 18 79
+ 1.8605 7 8 cbr 1280 ------- 0 0.0 9.0 21 80
+ 1.86306 7 8 pareto 320 ------- 2 2.0 11.0 19 81
- 1.8653 7 8 pareto 320 ------- 1 1.0 10.0 0 15
r 1.86531 7 8 exp 320 ------- 5 5.0 14.0 5 14
+ 1.88236 7 8 pareto 320 ------- 1 1.0 10.0 16 82
- 1.8909 7 8 exp 320 ------- 4 4.0 13.0 3 17
r 1.89091 7 8 pareto 320 ------- 1 1.0 10.0 0 15
+ 1.9005 7 8 cbr 1280 ------- 0 0.0 9.0 22 83
- 1.9165 7 8 cbr 1280 ------- 0 0.0 9.0 6 16
r 1.91651 7 8 exp 320 ------- 4 4.0 13.0 3 17
+ 1.92236 7 8 pareto 320 ------- 1 1.0 10.0 17 84
+ 1.9405 7 8 cbr 1280 ------- 0 0.0 9.0 23 85
+ 1.94306 7 8 pareto 320 ------- 2 2.0 11.0 20 86
+ 1.96236 7 8 pareto 320 ------- 1 1.0 10.0 18 87
+ 1.9805 7 8 cbr 1280 ------- 0 0.0 9.0 24 88
+ 2.00236 7 8 pareto 320 ------- 1 1.0 10.0 19 89
- 2.0189 7 8 pareto 320 ------- 1 1.0 10.0 1 18
r 2.01891 7 8 cbr 1280 ------- 0 0.0 9.0 6 16
+ 2.0205 7 8 cbr 1280 ------- 0 0.0 9.0 25 90
+ 2.02306 7 8 pareto 320 ------- 2 2.0 11.0 21 91
+ 2.027613 7 8 exp 320 ------- 4 4.0 13.0 12 92
+ 2.04236 7 8 pareto 320 ------- 1 1.0 10.0 20 93
- 2.0445 7 8 exp 320 ------- 4 4.0 13.0 4 20
r 2.04451 7 8 pareto 320 ------- 1 1.0 10.0 1 18
+ 2.0605 7 8 cbr 1280 ------- 0 0.0 9.0 26 94
+ 2.06306 7 8 pareto 320 ------- 2 2.0 11.0 22 95
+ 2.067613 7 8 exp 320 ------- 4 4.0 13.0 13 96
- 2.0701 7 8 cbr 1280 ------- 0 0.0 9.0 7 19
r 2.07011 7 8 exp 320 ------- 4 4.0 13.0 4 20
+ 2.08236 7 8 pareto 320 ------- 1 1.0 10.0 21 97
+ 2.1005 7 8 cbr 1280 ------- 0 0.0 9.0 27 98
+ 2.12236 7 8 pareto 320 ------- 1 1.0 10.0 22 99
+ 2.1405 7 8 cbr 1280 ------- 0 0.0 9.0 28 100
+ 2.16236 7 8 pareto 320 ------- 1 1.0 10.0 23 101
+ 2.172101 7 8 exp 320 ------- 4 4.0 13.0 14 103
- 2.1725 7 8 exp 320 ------- 5 5.0 14.0 6 21
r 2.17251 7 8 cbr 1280 ------- 0 0.0 9.0 7 19
+ 2.182341 7 8 cbr 1280 ------- 0 0.0 9.0 29 102
- 2.1981 7 8 exp 320 ------- 5 5.0 14.0 7 22
r 2.19811 7 8 exp 320 ------- 5 5.0 14.0 6 21
+ 2.20236 7 8 pareto 320 ------- 1 1.0 10.0 24 104
+ 2.20492 7 8 pareto 320 ------- 2 2.0 11.0 23 105
+ 2.212101 7 8 exp 320 ------- 4 4.0 13.0 15 107
+ 2.222341 7 8 cbr 1280 ------- 0 0.0 9.0 30 106
- 2.2237 7 8 pareto 320 ------- 2 2.0 11.0 0 23
r 2.22371 7 8 exp 320 ------- 5 5.0 14.0 7 22
+ 2.24236 7 8 pareto 320 ------- 1 1.0 10.0 25 108
- 2.2493 7 8 exp 320 ------- 5 5.0 14.0 8 24
r 2.24931 7 8 pareto 320 ------- 2 2.0 11.0 0 23
+ 2.252101 7 8 exp 320 ------- 4 4.0 13.0 16 110
+ 2.262341 7 8 cbr 1280 ------- 0 0.0 9.0 31 109
+ 2.264901 7 8 pareto 320 ------- 2 2.0 11.0 24 111
- 2.2749 7 8 pareto 320 ------- 1 1.0 10.0 2 25
r 2.27491 7 8 exp 320 ------- 5 5.0 14.0 8 24
+ 2.28236 7 8 pareto 320 ------- 1 1.0 10.0 26 112
+ 2.292101 7 8 exp 320 ------- 4 4.0 13.0 17 114
- 2.3005 7 8 pareto 320 ------- 2 2.0 11.0 1 26
r 2.30051 7 8 pareto 320 ------- 1 1.0 10.0 2 25
+ 2.302341 7 8 cbr 1280 ------- 0 0.0 9.0 32 113
+ 2.32236 7 8 pareto 320 ------- 1 1.0 10.0 27 115
- 2.3261 7 8 exp 320 ------- 4 4.0 13.0 5 28
r 2.32611 7 8 pareto 320 ------- 2 2.0 11.0 1 26
+ 2.332101 7 8 exp 320 ------- 4 4.0 13.0 18 117
+ 2.342341 7 8 cbr 1280 ------- 0 0.0 9.0 33 116
+ 2.344901 7 8 pareto 320 ------- 2 2.0 11.0 25 118
- 2.3517 7 8 exp 320 ------- 5 5.0 14.0 9 29
r 2.35171 7 8 exp 320 ------- 4 4.0 13.0 5 28
+ 2.36236 7 8 pareto 320 ------- 1 1.0 10.0 28 119
+ 2.372101 7 8 exp 320 ------- 4 4.0 13.0 19 121
- 2.3773 7 8 cbr 1280 ------- 0 0.0 9.0 8 27
r 2.37731 7 8 exp 320 ------- 5 5.0 14.0 9 29
+ 2.382341 7 8 cbr 1280 ------- 0 0.0 9.0 34 120
+ 2.40236 7 8 pareto 320 ------- 1 1.0 10.0 29 122
+ 2.412101 7 8 exp 320 ------- 4 4.0 13.0 20 124
+ 2.422341 7 8 cbr 1280 ------- 0 0.0 9.0 35 123
+ 2.424901 7 8 pareto 320 ------- 2 2.0 11.0 26 125
+ 2.433587 7 8 pareto 320 ------- 2 2.0 11.0 27 126
+ 2.44236 7 8 pareto 320 ------- 1 1.0 10.0 30 127
+ 2.44492 7 8 pareto 320 ------- 2 2.0 11.0 28 128
+ 2.452101 7 8 exp 320 ------- 4 4.0 13.0 21 130
+ 2.462341 7 8 cbr 1280 ------- 0 0.0 9.0 36 129
- 2.4797 7 8 pareto 320 ------- 2 2.0 11.0 2 30
r 2.47971 7 8 cbr 1280 ------- 0 0.0 9.0 8 27
+ 2.48236 7 8 pareto 320 ------- 1 1.0 10.0 31 131
+ 2.485273 7 8 exp 320 ------- 5 5.0 14.0 11 133
+ 2.490067 7 8 pareto 320 ------- 2 2.0 11.0 29 134
+ 2.492627 7 8 exp 320 ------- 4 4.0 13.0 22 135
+ 2.502867 7 8 cbr 1280 ------- 0 0.0 9.0 37 132
- 2.5053 7 8 exp 320 ------- 5 5.0 14.0 10 31
r 2.50531 7 8 pareto 320 ------- 2 2.0 11.0 2 30
+ 2.505427 7 8 exp 320 ------- 5 5.0 14.0 12 136
+ 2.507987 7 8 pareto 320 ------- 2 2.0 11.0 30 137
+ 2.510547 7 8 exp 320 ------- 5 5.0 14.0 13 138
+ 2.515273 7 8 exp 320 ------- 5 5.0 14.0 14 139
+ 2.52236 7 8 pareto 320 ------- 1 1.0 10.0 32 140
+ 2.525273 7 8 exp 320 ------- 5 5.0 14.0 15 142
- 2.5309 7 8 pareto 320 ------- 2 2.0 11.0 3 32
r 2.53091 7 8 exp 320 ------- 5 5.0 14.0 10 31
+ 2.532101 7 8 exp 320 ------- 4 4.0 13.0 23 143
+ 2.542341 7 8 cbr 1280 ------- 0 0.0 9.0 38 141
+ 2.544901 7 8 exp 320 ------- 5 5.0 14.0 16 144
+ 2.547461 7 8 exp 320 ------- 5 5.0 14.0 17 145
+ 2.550021 7 8 pareto 320 ------- 2 2.0 11.0 31 146
- 2.5565 7 8 pareto 320 ------- 2 2.0 11.0 4 33
r 2.55651 7 8 pareto 320 ------- 2 2.0 11.0 3 32
+ 2.56236 7 8 pareto 320 ------- 1 1.0 10.0 33 147
+ 2.572101 7 8 exp 320 ------- 4 4.0 13.0 24 149
- 2.5821 7 8 pareto 320 ------- 1 1.0 10.0 3 34
r 2.58211 7 8 pareto 320 ------- 2 2.0 11.0 4 33
+ 2.582341 7 8 cbr 1280 ------- 0 0.0 9.0 39 148
+ 2.60236 7 8 pareto 320 ------- 1 1.0 10.0 34 150
- 2.6077 7 8 pareto 320 ------- 2 2.0 11.0 5 35
r 2.60771 7 8 pareto 320 ------- 1 1.0 10.0 3 34
+ 2.608868 7 8 pareto 320 ------- 2 2.0 11.0 32 152
+ 2.612101 7 8 exp 320 ------- 4 4.0 13.0 25 153
+ 2.622341 7 8 cbr 1280 ------- 0 0.0 9.0 40 151
+ 2.624901 7 8 pareto 320 ------- 2 2.0 11.0 33 154
+ 2.628868 7 8 pareto 320 ------- 2 2.0 11.0 34 155
- 2.6333 7 8 exp 320 ------- 4 4.0 13.0 6 37
r 2.63331 7 8 pareto 320 ------- 2 2.0 11.0 5 35
+ 2.638868 7 8 pareto 320 ------- 2 2.0 11.0 35 156
+ 2.64236 7 8 pareto 320 ------- 1 1.0 10.0 35 157
+ 2.648868 7 8 pareto 320 ------- 2 2.0 11.0 36 159
+ 2.652101 7 8 exp 320 ------- 4 4.0 13.0 26 160
- 2.6589 7 8 pareto 320 ------- 3 3.0 12.0 0 38
r 2.65891 7 8 exp 320 ------- 4 4.0 13.0 6 37
+ 2.662341 7 8 cbr 1280 ------- 0 0.0 9.0 41 158
+ 2.664901 7 8 pareto 320 ------- 2 2.0 11.0 37 161
+ 2.668868 7 8 pareto 320 ------- 2 2.0 11.0 38 162
+ 2.678868 7 8 pareto 320 ------- 2 2.0 11.0 39 163
+ 2.68236 7 8 pareto 320 ------- 1 1.0 10.0 36 164
- 2.6845 7 8 cbr 1280 ------- 0 0.0 9.0 9 36
r 2.68451 7 8 pareto 320 ------- 3 3.0 12.0 0 38
+ 2.688868 7 8 pareto 320 ------- 2 2.0 11.0 40 166
+ 2.692101 7 8 exp 320 ------- 4 4.0 13.0 27 167
+ 2.702341 7 8 cbr 1280 ------- 0 0.0 9.0 42 165
+ 2.704901 7 8 pareto 320 ------- 2 2.0 11.0 41 168
+ 2.708868 7 8 pareto 320 ------- 2 2.0 11.0 42 169
+ 2.718868 7 8 pareto 320 ------- 2 2.0 11.0 43 170
+ 2.72236 7 8 pareto 320 ------- 1 1.0 10.0 37 171
+ 2.728868 7 8 pareto 320 ------- 2 2.0 11.0 44 173
+ 2.7405 7 8 cbr 1280 ------- 0 0.0 9.0 43 172
+ 2.74306 7 8 pareto 320 ------- 2 2.0 11.0 45 174
+ 2.748868 7 8 pareto 320 ------- 2 2.0 11.0 46 175
+ 2.758868 7 8 pareto 320 ------- 2 2.0 11.0 47 176
+ 2.76236 7 8 pareto 320 ------- 1 1.0 10.0 38 177
+ 2.768868 7 8 pareto 320 ------- 2 2.0 11.0 48 179
+ 2.7805 7 8 cbr 1280 ------- 0 0.0 9.0 44 178
+ 2.78306 7 8 pareto 320 ------- 2 2.0 11.0 49 180
- 2.7869 7 8 pareto 320 ------- 2 2.0 11.0 6 39
r 2.78691 7 8 cbr 1280 ------- 0 0.0 9.0 9 36
+ 2.788868 7 8 pareto 320 ------- 2 2.0 11.0 50 181
+ 2.798868 7 8 pareto 320 ------- 2 2.0 11.0 51 182
+ 2.80236 7 8 pareto 320 ------- 1 1.0 10.0 39 183
+ 2.808868 7 8 pareto 320 ------- 2 2.0 11.0 52 185
- 2.8125 7 8 pareto 320 ------- 2 2.0 11.0 7 40
r 2.81251 7 8 pareto 320 ------- 2 2.0 11.0 6 39
+ 2.8205 7 8 cbr 1280 ------- 0 0.0 9.0 45 184
+ 2.82306 7 8 pareto 320 ------- 2 2.0 11.0 53 186
- 2.8381 7 8 pareto 320 ------- 2 2.0 11.0 8 41
r 2.83811 7 8 pareto 320 ------- 2 2.0 11.0 7 40
+ 2.84236 7 8 pareto 320 ------- 1 1.0 10.0 40 187
+ 2.8605 7 8 cbr 1280 ------- 0 0.0 9.0 46 188
- 2.8637 7 8 pareto 320 ------- 1 1.0 10.0 4 42
r 2.86371 7 8 pareto 320 ------- 2 2.0 11.0 8 41
+ 2.88236 7 8 pareto 320 ------- 1 1.0 10.0 41 189
- 2.8893 7 8 pareto 320 ------- 2 2.0 11.0 9 43
r 2.88931 7 8 pareto 320 ------- 1 1.0 10.0 4 42
+ 2.9005 7 8 cbr 1280 ------- 0 0.0 9.0 47 190
- 2.9149 7 8 exp 320 ------- 4 4.0 13.0 7 45
r 2.91491 7 8 pareto 320 ------- 2 2.0 11.0 9 43
+ 2.92236 7 8 pareto 320 ------- 1 1.0 10.0 42 191
- 2.9405 7 8 cbr 1280 ------- 0 0.0 9.0 10 44
+ 2.9405 7 8 cbr 1280 ------- 0 0.0 9.0 48 192
r 2.94051 7 8 exp 320 ------- 4 4.0 13.0 7 45
+ 2.94306 7 8 pareto 320 ------- 2 2.0 11.0 54 193
+ 2.96236 7 8 pareto 320 ------- 1 1.0 10.0 43 194
+ 2.9805 7 8 cbr 1280 ------- 0 0.0 9.0 49 195
+ 3.00236 7 8 pareto 320 ------- 1 1.0 10.0 44 196
+ 3.00826 7 8 pareto 320 ------- 2 2.0 11.0 55 198
+ 3.0205 7 8 cbr 1280 ------- 0 0.0 9.0 50 197
+ 3.04236 7 8 pareto 320 ------- 1 1.0 10.0 45 199
- 3.0429 7 8 pareto 320 ------- 2 2.0 11.0 10 46
r 3.04291 7 8 cbr 1280 ------- 0 0.0 9.0 10 44
+ 3.0605 7 8 cbr 1280 ------- 0 0.0 9.0 51 200
- 3.0685 7 8 pareto 320 ------- 2 2.0 11.0 11 47
r 3.06851 7 8 pareto 320 ------- 2 2.0 11.0 10 46
+ 3.08236 7 8 pareto 320 ------- 1 1.0 10.0 46 201
- 3.0941 7 8 pareto 320 ------- 2 2.0 11.0 12 48
r 3.09411 7 8 pareto 320 ------- 2 2.0 11.0 11 47
+ 3.1005 7 8 cbr 1280 ------- 0 0.0 9.0 52 202
- 3.1197 7 8 pareto 320 ------- 1 1.0 10.0 5 49
r 3.11971 7 8 pareto 320 ------- 2 2.0 11.0 12 48
+ 3.12236 7 8 pareto 320 ------- 1 1.0 10.0 47 203
+ 3.128921 7 8 pareto 320 ------- 2 2.0 11.0 56 205
+ 3.1405 7 8 cbr 1280 ------- 0 0.0 9.0 53 204
- 3.1453 7 8 pareto 320 ------- 2 2.0 11.0 13 50
r 3.14531 7 8 pareto 320 ------- 1 1.0 10.0 5 49
+ 3.16236 7 8 pareto 320 ------- 1 1.0 10.0 48 206
- 3.1709 7 8 exp 320 ------- 4 4.0 13.0 8 52
r 3.17091 7 8 pareto 320 ------- 2 2.0 11.0 13 50
+ 3.1805 7 8 cbr 1280 ------- 0 0.0 9.0 54 207
- 3.1965 7 8 cbr 1280 ------- 0 0.0 9.0 11 51
r 3.19651 7 8 exp 320 ------- 4 4.0 13.0 8 52
+ 3.20236 7 8 pareto 320 ------- 1 1.0 10.0 49 208
+ 3.210058 7 8 pareto 320 ------- 2 2.0 11.0 57 210
+ 3.2205 7 8 cbr 1280 ------- 0 0.0 9.0 55 209
+ 3.24236 7 8 pareto 320 ------- 1 1.0 10.0 50 211
+ 3.2605 7 8 cbr 1280 ------- 0 0.0 9.0 56 212
+ 3.28236 7 8 pareto 320 ------- 1 1.0 10.0 51 213
- 3.2989 7 8 pareto 320 ------- 2 2.0 11.0 14 53
r 3.29891 7 8 cbr 1280 ------- 0 0.0 9.0 11 51
+ 3.3005 7 8 cbr 1280 ------- 0 0.0 9.0 57 214
+ 3.310392 7 8 pareto 320 ------- 2 2.0 11.0 58 215
+ 3.320392 7 8 pareto 320 ------- 2 2.0 11.0 59 216
+ 3.322952 7 8 pareto 320 ------- 1 1.0 10.0 52 217
- 3.3245 7 8 pareto 320 ------- 2 2.0 11.0 15 54
r 3.32451 7 8 pareto 320 ------- 2 2.0 11.0 14 53
+ 3.32876 7 8 pareto 320 ------- 3 3.0 12.0 1 219
+ 3.33132 7 8 pareto 320 ------- 2 2.0 11.0 60 220
+ 3.34156 7 8 cbr 1280 ------- 0 0.0 9.0 58 218
+ 3.34412 7 8 pareto 320 ------- 2 2.0 11.0 61 221
- 3.3501 7 8 pareto 320 ------- 2 2.0 11.0 16 55
r 3.35011 7 8 pareto 320 ------- 2 2.0 11.0 15 54
+ 3.350392 7 8 pareto 320 ------- 2 2.0 11.0 62 222
+ 3.360392 7 8 pareto 320 ------- 2 2.0 11.0 63 223
+ 3.362952 7 8 pareto 320 ------- 1 1.0 10.0 53 224
+ 3.370392 7 8 pareto 320 ------- 2 2.0 11.0 64 226
- 3.3757 7 8 pareto 320 ------- 1 1.0 10.0 6 56
r 3.37571 7 8 pareto 320 ------- 2 2.0 11.0 16 55
+ 3.380632 7 8 cbr 1280 ------- 0 0.0 9.0 59 225
+ 3.383192 7 8 pareto 320 ------- 2 2.0 11.0 65 227
+ 3.390392 7 8 pareto 320 ------- 2 2.0 11.0 66 228
+ 3.400392 7 8 pareto 320 ------- 2 2.0 11.0 67 229
- 3.4013 7 8 exp 320 ------- 4 4.0 13.0 9 58
r 3.40131 7 8 pareto 320 ------- 1 1.0 10.0 6 56
+ 3.402952 7 8 pareto 320 ------- 1 1.0 10.0 54 230
+ 3.4205 7 8 cbr 1280 ------- 0 0.0 9.0 60 231
- 3.4269 7 8 cbr 1280 ------- 0 0.0 9.0 12 57
r 3.42691 7 8 exp 320 ------- 4 4.0 13.0 9 58
+ 3.44236 7 8 pareto 320 ------- 1 1.0 10.0 55 232
+ 3.451765 7 8 pareto 320 ------- 2 2.0 11.0 68 234
+ 3.462005 7 8 cbr 1280 ------- 0 0.0 9.0 61 233
+ 3.48236 7 8 pareto 320 ------- 1 1.0 10.0 56 235
+ 3.5005 7 8 cbr 1280 ------- 0 0.0 9.0 62 236
+ 3.507326 7 8 pareto 320 ------- 2 2.0 11.0 69 237
+ 3.517326 7 8 pareto 320 ------- 2 2.0 11.0 70 238
+ 3.52236 7 8 pareto 320 ------- 1 1.0 10.0 57 239
- 3.5293 7 8 pareto 320 ------- 1 1.0 10.0 7 59
r 3.52931 7 8 cbr 1280 ------- 0 0.0 9.0 12 57
+ 3.5405 7 8 cbr 1280 ------- 0 0.0 9.0 63 240
- 3.5549 7 8 exp 320 ------- 4 4.0 13.0 10 61
r 3.55491 7 8 pareto 320 ------- 1 1.0 10.0 7 59
+ 3.560784 7 8 pareto 320 ------- 2 2.0 11.0 71 241
+ 3.563344 7 8 pareto 320 ------- 1 1.0 10.0 58 242
+ 3.569992 7 8 exp 320 ------- 4 4.0 13.0 28 244
+ 3.572552 7 8 pareto 320 ------- 2 2.0 11.0 72 245
- 3.5805 7 8 cbr 1280 ------- 0 0.0 9.0 13 60
r 3.58051 7 8 exp 320 ------- 4 4.0 13.0 10 61
+ 3.582792 7 8 cbr 1280 ------- 0 0.0 9.0 64 243
+ 3.585352 7 8 exp 320 ------- 5 5.0 14.0 18 246
+ 3.587912 7 8 exp 320 ------- 5 5.0 14.0 19 247
+ 3.597815 7 8 exp 320 ------- 5 5.0 14.0 20 248
+ 3.60236 7 8 pareto 320 ------- 1 1.0 10.0 59 249
+ 3.607815 7 8 exp 320 ------- 5 5.0 14.0 21 251
+ 3.610375 7 8 exp 320 ------- 4 4.0 13.0 29 252
+ 3.620615 7 8 cbr 1280 ------- 0 0.0 9.0 65 250
+ 3.623175 7 8 exp 320 ------- 5 5.0 14.0 22 253
+ 3.627815 7 8 exp 320 ------- 5 5.0 14.0 23 254
+ 3.637815 7 8 exp 320 ------- 5 5.0 14.0 24 255
+ 3.64236 7 8 pareto 320 ------- 1 1.0 10.0 60 256
+ 3.64492 7 8 pareto 320 ------- 2 2.0 11.0 73 257
+ 3.647815 7 8 exp 320 ------- 5 5.0 14.0 25 259
+ 3.650375 7 8 exp 320 ------- 4 4.0 13.0 30 260
+ 3.660615 7 8 cbr 1280 ------- 0 0.0 9.0 66 258
+ 3.663175 7 8 pareto 320 ------- 2 2.0 11.0 74 261
+ 3.665735 7 8 exp 320 ------- 5 5.0 14.0 26 262
+ 3.668295 7 8 pareto 320 ------- 2 2.0 11.0 75 263
+ 3.68236 7 8 pareto 320 ------- 1 1.0 10.0 61 264
- 3.6829 7 8 pareto 320 ------- 2 2.0 11.0 17 62
r 3.68291 7 8 cbr 1280 ------- 0 0.0 9.0 13 60
+ 3.689992 7 8 exp 320 ------- 4 4.0 13.0 31 266
+ 3.7005 7 8 cbr 1280 ------- 0 0.0 9.0 67 265
+ 3.70306 7 8 pareto 320 ------- 3 3.0 12.0 2 267
- 3.7085 7 8 pareto 320 ------- 1 1.0 10.0 8 63
r 3.70851 7 8 pareto 320 ------- 2 2.0 11.0 17 62
+ 3.716474 7 8 pareto 320 ------- 2 2.0 11.0 76 268
+ 3.71998 7 8 exp 320 ------- 5 5.0 14.0 27 269
+ 3.72254 7 8 pareto 320 ------- 1 1.0 10.0 62 270
+ 3.72998 7 8 exp 320 ------- 5 5.0 14.0 28 272
+ 3.73254 7 8 exp 320 ------- 4 4.0 13.0 32 273
- 3.7341 7 8 exp 320 ------- 4 4.0 13.0 11 65
r 3.73411 7 8 pareto 320 ------- 1 1.0 10.0 8 63
+ 3.74278 7 8 cbr 1280 ------- 0 0.0 9.0 68 271
+ 3.74534 7 8 exp 320 ------- 5 5.0 14.0 29 274
+ 3.7479 7 8 pareto 320 ------- 3 3.0 12.0 3 275
+ 3.75046 7 8 exp 320 ------- 5 5.0 14.0 30 276
- 3.7597 7 8 cbr 1280 ------- 0 0.0 9.0 14 64
r 3.75971 7 8 exp 320 ------- 4 4.0 13.0 11 65
+ 3.75998 7 8 exp 320 ------- 5 5.0 14.0 31 277
+ 3.76254 7 8 pareto 320 ------- 1 1.0 10.0 63 278
+ 3.76998 7 8 exp 320 ------- 5 5.0 14.0 32 280
+ 3.77254 7 8 exp 320 ------- 4 4.0 13.0 33 281
+ 3.78278 7 8 cbr 1280 ------- 0 0.0 9.0 69 279
+ 3.78534 7 8 exp 320 ------- 5 5.0 14.0 33 282
+ 3.7879 7 8 pareto 320 ------- 3 3.0 12.0 4 283
+ 3.79046 7 8 exp 320 ------- 5 5.0 14.0 34 284
+ 3.79998 7 8 exp 320 ------- 5 5.0 14.0 35 285
+ 3.80254 7 8 pareto 320 ------- 1 1.0 10.0 64 286
+ 3.80998 7 8 exp 320 ------- 5 5.0 14.0 36 288
+ 3.81254 7 8 exp 320 ------- 4 4.0 13.0 34 289
+ 3.82278 7 8 cbr 1280 ------- 0 0.0 9.0 70 287
+ 3.82534 7 8 exp 320 ------- 5 5.0 14.0 37 290
+ 3.82998 7 8 exp 320 ------- 5 5.0 14.0 38 291
+ 3.84236 7 8 pareto 320 ------- 1 1.0 10.0 65 292
+ 3.849992 7 8 exp 320 ------- 4 4.0 13.0 35 294
+ 3.8605 7 8 cbr 1280 ------- 0 0.0 9.0 71 293
- 3.8621 7 8 pareto 320 ------- 1 1.0 10.0 9 66
r 3.86211 7 8 cbr 1280 ------- 0 0.0 9.0 14 64
+ 3.88236 7 8 pareto 320 ------- 1 1.0 10.0 66 295
- 3.8877 7 8 cbr 1280 ------- 0 0.0 9.0 15 67
r 3.88771 7 8 pareto 320 ------- 1 1.0 10.0 9 66
+ 3.888197 7 8 exp 320 ------- 5 5.0 14.0 39 297
+ 3.890757 7 8 exp 320 ------- 4 4.0 13.0 36 298
+ 3.900997 7 8 cbr 1280 ------- 0 0.0 9.0 72 296
+ 3.92236 7 8 pareto 320 ------- 1 1.0 10.0 67 299
+ 3.929992 7 8 exp 320 ------- 4 4.0 13.0 37 301
+ 3.9405 7 8 cbr 1280 ------- 0 0.0 9.0 73 300
+ 3.96236 7 8 pareto 320 ------- 1 1.0 10.0 68 302
+ 3.969992 7 8 exp 320 ------- 4 4.0 13.0 38 304
+ 3.9805 7 8 cbr 1280 ------- 0 0.0 9.0 74 303
- 3.9901 7 8 pareto 320 ------- 1 1.0 10.0 10 68
r 3.99011 7 8 cbr 1280 ------- 0 0.0 9.0 15 67
+ 4.00236 7 8 pareto 320 ------- 1 1.0 10.0 69 305
+ 4.008624 7 8 exp 320 ------- 5 5.0 14.0 40 307
- 4.0157 7 8 cbr 1280 ------- 0 0.0 9.0 16 69
r 4.01571 7 8 pareto 320 ------- 1 1.0 10.0 10 68
+ 4.0205 7 8 cbr 1280 ------- 0 0.0 9.0 75 306
+ 4.02306 7 8 exp 320 ------- 5 5.0 14.0 41 308
+ 4.02562 7 8 pareto 320 ------- 2 2.0 11.0 77 309
+ 4.04236 7 8 pareto 320 ------- 1 1.0 10.0 70 310
+ 4.0605 7 8 cbr 1280 ------- 0 0.0 9.0 76 311
+ 4.081552 7 8 pareto 320 ------- 2 2.0 11.0 78 312
+ 4.084112 7 8 pareto 320 ------- 1 1.0 10.0 71 313
+ 4.1005 7 8 cbr 1280 ------- 0 0.0 9.0 77 314
+ 4.10306 7 8 exp 320 ------- 5 5.0 14.0 42 315
+ 4.111929 7 8 pareto 320 ------- 3 3.0 12.0 5 316
+ 4.114489 7 8 exp 320 ------- 5 5.0 14.0 43 317
- 4.1181 7 8 pareto 320 ------- 1 1.0 10.0 11 70
r 4.11811 7 8 cbr 1280 ------- 0 0.0 9.0 16 69
+ 4.12236 7 8 pareto 320 ------- 1 1.0 10.0 72 318
+ 4.1405 7 8 cbr 1280 ------- 0 0.0 9.0 78 319
- 4.1437 7 8 cbr 1280 ------- 0 0.0 9.0 17 71
r 4.14371 7 8 pareto 320 ------- 1 1.0 10.0 11 70
+ 4.16236 7 8 pareto 320 ------- 1 1.0 10.0 73 320
+ 4.165756 7 8 pareto 320 ------- 2 2.0 11.0 79 322
+ 4.1805 7 8 cbr 1280 ------- 0 0.0 9.0 79 321
+ 4.18306 7 8 pareto 320 ------- 2 2.0 11.0 80 323
+ 4.20236 7 8 pareto 320 ------- 1 1.0 10.0 74 324
+ 4.2205 7 8 cbr 1280 ------- 0 0.0 9.0 80 325
+ 4.231272 7 8 pareto 320 ------- 2 2.0 11.0 81 326
+ 4.24236 7 8 pareto 320 ------- 1 1.0 10.0 75 327
- 4.2461 7 8 pareto 320 ------- 1 1.0 10.0 12 72
r 4.24611 7 8 cbr 1280 ------- 0 0.0 9.0 17 71
+ 4.2605 7 8 cbr 1280 ------- 0 0.0 9.0 81 328
- 4.2717 7 8 cbr 1280 ------- 0 0.0 9.0 18 73
r 4.27171 7 8 pareto 320 ------- 1 1.0 10.0 12 72
+ 4.28236 7 8 pareto 320 ------- 1 1.0 10.0 76 329
+ 4.3005 7 8 cbr 1280 ------- 0 0.0 9.0 82 330
+ 4.32236 7 8 pareto 320 ------- 1 1.0 10.0 77 331
+ 4.3405 7 8 cbr 1280 ------- 0 0.0 9.0 83 332
+ 4.36236 7 8 pareto 320 ------- 1 1.0 10.0 78 333
- 4.3741 7 8 pareto 320 ------- 1 1.0 10.0 13 74
r 4.37411 7 8 cbr 1280 ------- 0 0.0 9.0 18 73
+ 4.3805 7 8 cbr 1280 ------- 0 0.0 9.0 84 334
- 4.3997 7 8 cbr 1280 ------- 0 0.0 9.0 19 75
r 4.39971 7 8 pareto 320 ------- 1 1.0 10.0 13 74
+ 4.40236 7 8 pareto 320 ------- 1 1.0 10.0 79 335
+ 4.4205 7 8 cbr 1280 ------- 0 0.0 9.0 85 336
+ 4.42306 7 8 exp 320 ------- 4 4.0 13.0 39 337
+ 4.44236 7 8 pareto 320 ------- 1 1.0 10.0 80 338
+ 4.4605 7 8 cbr 1280 ------- 0 0.0 9.0 86 339
+ 4.46306 7 8 exp 320 ------- 4 4.0 13.0 40 340
+ 4.48236 7 8 pareto 320 ------- 1 1.0 10.0 81 341
+ 4.5005 7 8 cbr 1280 ------- 0 0.0 9.0 87 342
- 4.5021 7 8 pareto 320 ------- 1 1.0 10.0 14 76
r 4.50211 7 8 cbr 1280 ------- 0 0.0 9.0 19 75
+ 4.52236 7 8 pareto 320 ------- 1 1.0 10.0 82 343
- 4.5277 7 8 cbr 1280 ------- 0 0.0 9.0 20 77
r 4.52771 7 8 pareto 320 ------- 1 1.0 10.0 14 76
+ 4.5405 7 8 cbr 1280 ------- 0 0.0 9.0 88 344
+ 4.56236 7 8 pareto 320 ------- 1 1.0 10.0 83 345
+ 4.5805 7 8 cbr 1280 ------- 0 0.0 9.0 89 346
+ 4.60236 7 8 pareto 320 ------- 1 1.0 10.0 84 347
+ 4.6205 7 8 cbr 1280 ------- 0 0.0 9.0 90 348
- 4.6301 7 8 pareto 320 ------- 1 1.0 10.0 15 78
r 4.63011 7 8 cbr 1280 ------- 0 0.0 9.0 20 77
+ 4.64236 7 8 pareto 320 ------- 1 1.0 10.0 85 349
- 4.6557 7 8 pareto 320 ------- 2 2.0 11.0 18 79
r 4.65571 7 8 pareto 320 ------- 1 1.0 10.0 15 78
+ 4.6605 7 8 cbr 1280 ------- 0 0.0 9.0 91 350
- 4.6813 7 8 cbr 1280 ------- 0 0.0 9.0 21 80
r 4.68131 7 8 pareto 320 ------- 2 2.0 11.0 18 79
+ 4.68236 7 8 pareto 320 ------- 1 1.0 10.0 86 351
+ 4.7005 7 8 cbr 1280 ------- 0 0.0 9.0 92 352
+ 4.72236 7 8 pareto 320 ------- 1 1.0 10.0 87 353
+ 4.7405 7 8 cbr 1280 ------- 0 0.0 9.0 93 354
+ 4.76236 7 8 pareto 320 ------- 1 1.0 10.0 88 355
+ 4.7805 7 8 cbr 1280 ------- 0 0.0 9.0 94 356
- 4.7837 7 8 pareto 320 ------- 2 2.0 11.0 19 81
r 4.78371 7 8 cbr 1280 ------- 0 0.0 9.0 21 80
+ 4.80236 7 8 pareto 320 ------- 1 1.0 10.0 89 357
+ 4.80492 7 8 pareto 320 ------- 3 3.0 12.0 6 358
- 4.8093 7 8 pareto 320 ------- 1 1.0 10.0 16 82
r 4.80931 7 8 pareto 320 ------- 2 2.0 11.0 19 81
+ 4.8205 7 8 cbr 1280 ------- 0 0.0 9.0 95 359
- 4.8349 7 8 cbr 1280 ------- 0 0.0 9.0 22 83
r 4.83491 7 8 pareto 320 ------- 1 1.0 10.0 16 82
+ 4.84236 7 8 pareto 320 ------- 1 1.0 10.0 90 360
+ 4.8605 7 8 cbr 1280 ------- 0 0.0 9.0 96 361
+ 4.88236 7 8 pareto 320 ------- 1 1.0 10.0 91 362
+ 4.9005 7 8 cbr 1280 ------- 0 0.0 9.0 97 363
+ 4.92236 7 8 pareto 320 ------- 1 1.0 10.0 92 364
- 4.9373 7 8 pareto 320 ------- 1 1.0 10.0 17 84
r 4.93731 7 8 cbr 1280 ------- 0 0.0 9.0 22 83
+ 4.9405 7 8 cbr 1280 ------- 0 0.0 9.0 98 365
+ 4.96236 7 8 pareto 320 ------- 1 1.0 10.0 93 366
- 4.9629 7 8 cbr 1280 ------- 0 0.0 9.0 23 85
r 4.96291 7 8 pareto 320 ------- 1 1.0 10.0 17 84
+ 4.972761 7 8 pareto 320 ------- 2 2.0 11.0 82 368
+ 4.983001 7 8 cbr 1280 ------- 0 0.0 9.0 99 367
+ 4.985561 7 8 exp 320 ------- 4 4.0 13.0 41 369
+ 5.00236 7 8 pareto 320 ------- 1 1.0 10.0 94 370
+ 5.0205 7 8 cbr 1280 ------- 0 0.0 9.0 100 371
+ 5.02306 7 8 exp 320 ------- 5 5.0 14.0 44 372
+ 5.02562 7 8 exp 320 ------- 4 4.0 13.0 42 373
+ 5.02818 7 8 pareto 320 ------- 2 2.0 11.0 83 374
+ 5.03074 7 8 exp 320 ------- 5 5.0 14.0 45 375
+ 5.03616 7 8 exp 320 ------- 5 5.0 14.0 46 376
+ 5.04236 7 8 pareto 320 ------- 1 1.0 10.0 95 377
+ 5.04616 7 8 exp 320 ------- 5 5.0 14.0 47 379
+ 5.0605 7 8 cbr 1280 ------- 0 0.0 9.0 101 378
+ 5.06306 7 8 exp 320 ------- 5 5.0 14.0 48 380
- 5.0653 7 8 pareto 320 ------- 2 2.0 11.0 20 86
r 5.06531 7 8 cbr 1280 ------- 0 0.0 9.0 23 85
+ 5.06562 7 8 exp 320 ------- 4 4.0 13.0 43 381
+ 5.06818 7 8 exp 320 ------- 5 5.0 14.0 49 382
+ 5.07616 7 8 exp 320 ------- 5 5.0 14.0 50 383
+ 5.08236 7 8 pareto 320 ------- 1 1.0 10.0 96 384
+ 5.08616 7 8 exp 320 ------- 5 5.0 14.0 51 386
- 5.0909 7 8 pareto 320 ------- 1 1.0 10.0 18 87
r 5.09091 7 8 pareto 320 ------- 2 2.0 11.0 20 86
+ 5.1005 7 8 cbr 1280 ------- 0 0.0 9.0 102 385
+ 5.10306 7 8 exp 320 ------- 5 5.0 14.0 52 387
+ 5.10562 7 8 exp 320 ------- 4 4.0 13.0 44 388
+ 5.10818 7 8 exp 320 ------- 5 5.0 14.0 53 389
+ 5.11616 7 8 exp 320 ------- 5 5.0 14.0 54 390
- 5.1165 7 8 cbr 1280 ------- 0 0.0 9.0 24 88
r 5.11651 7 8 pareto 320 ------- 1 1.0 10.0 18 87
+ 5.12236 7 8 pareto 320 ------- 1 1.0 10.0 97 391
+ 5.12616 7 8 exp 320 ------- 5 5.0 14.0 55 393
+ 5.1405 7 8 cbr 1280 ------- 0 0.0 9.0 103 392
+ 5.14306 7 8 exp 320 ------- 5 5.0 14.0 56 394
+ 5.14562 7 8 exp 320 ------- 4 4.0 13.0 45 395
+ 5.14818 7 8 exp 320 ------- 5 5.0 14.0 57 396
+ 5.15616 7 8 exp 320 ------- 5 5.0 14.0 58 397
+ 5.16236 7 8 pareto 320 ------- 1 1.0 10.0 98 398
+ 5.16616 7 8 exp 320 ------- 5 5.0 14.0 59 400
+ 5.1805 7 8 cbr 1280 ------- 0 0.0 9.0 104 399
+ 5.18306 7 8 exp 320 ------- 5 5.0 14.0 60 401
+ 5.18562 7 8 exp 320 ------- 4 4.0 13.0 46 402
+ 5.18818 7 8 exp 320 ------- 5 5.0 14.0 61 403
+ 5.192331 7 8 pareto 320 ------- 2 2.0 11.0 84 404
+ 5.19616 7 8 exp 320 ------- 5 5.0 14.0 62 405
+ 5.20236 7 8 pareto 320 ------- 1 1.0 10.0 99 406
+ 5.20616 7 8 exp 320 ------- 5 5.0 14.0 63 408
- 5.2189 7 8 pareto 320 ------- 1 1.0 10.0 19 89
r 5.21891 7 8 cbr 1280 ------- 0 0.0 9.0 24 88
+ 5.2205 7 8 cbr 1280 ------- 0 0.0 9.0 105 407
+ 5.22306 7 8 exp 320 ------- 5 5.0 14.0 64 409
+ 5.22562 7 8 exp 320 ------- 4 4.0 13.0 47 410
+ 5.22818 7 8 exp 320 ------- 5 5.0 14.0 65 411
+ 5.23616 7 8 exp 320 ------- 5 5.0 14.0 66 412
+ 5.24236 7 8 pareto 320 ------- 1 1.0 10.0 100 413
- 5.2445 7 8 cbr 1280 ------- 0 0.0 9.0 25 90
r 5.24451 7 8 pareto 320 ------- 1 1.0 10.0 19 89
+ 5.24492 7 8 pareto 320 ------- 2 2.0 11.0 85 414
+ 5.24748 7 8 exp 320 ------- 5 5.0 14.0 67 416
+ 5.2605 7 8 cbr 1280 ------- 0 0.0 9.0 106 415
+ 5.26306 7 8 pareto 320 ------- 2 2.0 11.0 86 417
+ 5.26562 7 8 exp 320 ------- 5 5.0 14.0 68 418
+ 5.26818 7 8 exp 320 ------- 4 4.0 13.0 48 419
+ 5.27074 7 8 pareto 320 ------- 2 2.0 11.0 87 420
+ 5.2733 7 8 exp 320 ------- 5 5.0 14.0 69 421
+ 5.27586 7 8 pareto 320 ------- 2 2.0 11.0 88 422
+ 5.27842 7 8 exp 320 ------- 5 5.0 14.0 70 423
+ 5.28236 7 8 pareto 320 ------- 1 1.0 10.0 101 424
+ 5.28492 7 8 pareto 320 ------- 2 2.0 11.0 89 425
+ 5.28748 7 8 exp 320 ------- 5 5.0 14.0 71 427
+ 5.3005 7 8 cbr 1280 ------- 0 0.0 9.0 107 426
+ 5.30306 7 8 pareto 320 ------- 2 2.0 11.0 90 428
+ 5.30562 7 8 exp 320 ------- 5 5.0 14.0 72 429
+ 5.30818 7 8 exp 320 ------- 4 4.0 13.0 49 430
+ 5.31074 7 8 pareto 320 ------- 2 2.0 11.0 91 431
+ 5.3133 7 8 exp 320 ------- 5 5.0 14.0 73 432
+ 5.31586 7 8 pareto 320 ------- 2 2.0 11.0 92 433
+ 5.31842 7 8 exp 320 ------- 5 5.0 14.0 74 434
+ 5.32236 7 8 pareto 320 ------- 1 1.0 10.0 102 435